<?xml version="1.0"?>
<VTKFile type="UnstructuredGrid" version="0.1" byte_order="LittleEndian">
  <UnstructuredGrid>
    <Piece NumberOfCells="2048" NumberOfPoints="1105">
      <PointData Scalars="deformation">
        <DataArray type="Float32" Name="deformation" NumberOfComponents="1" format="ascii">
          0.00246576 0.00263028 0.00249443 0.00281027 0.00266491 0.00252077 0.00300805 0.00285063 0.00322619 0.00305495 0.00288845 0.00272603
          0.00269724 0.00256377 0.00254405 0.00346759 0.00328079 0.00373559 0.00353134 0.00333221 0.00403413 0.0038103 0.00436778 0.004122
          0.00388105 0.00364559 0.00359155 0.00341768 0.0033783 0.00319916 0.00317212 0.00299112 0.00297421 0.00295107 0.00279327 0.00278452
          0.00260036 0.00259798 0.00259099 0.00257952 0.00277017 0.00275054 0.00309902 0.00313845 0.00292225 0.004742 0.00447158 0.00516323
          0.00486517 0.00457048 0.00563917 0.00531011 0.00617902 0.00581528 0.00545096 0.00508934 0.00498289 0.00473633 0.00465973 0.00679382
          0.00639143 0.00749685 0.00705166 0.00659656 0.00830408 0.007812 0.0092348 0.00869216 0.00811882 0.00752975 0.00730163 0.00694459
          0.00678329 0.00637871 0.00627133 0.00584252 0.00577725 0.00568845 0.00534218 0.00530895 0.00488071 0.0048712 0.00484344 0.00479811
          0.00525471 0.00518084 0.00598474 0.00613863 0.00557858 0.00445884 0.00446637 0.0040758 0.0040951 0.00410146 0.00372984 0.00375679
          0.00341858 0.00345003 0.00347298 0.0034869 0.00377315 0.0034915 0.00377854 0.00313933 0.00317285 0.00288926 0.00292295 0.00295165
          0.00266562 0.00269787 0.00246636 0.00249498 0.00252127 0.00254448 0.00272658 0.00256412 0.00275099 0.00257979 0.00277052 0.00259118
          0.00278475 0.00299142 0.00259808 0.00279339 0.00279624 0.00300497 0.00323516 0.0030016 0.00323123 0.00319973 0.00297465 0.00321933
          0.00420548 0.00428066 0.0043451 0.00399913 0.00369181 0.00394466 0.00439703 0.0044351 0.00407509 0.0044584 0.00409474 0.00377286
          0.00348666 0.00323104 0.0034725 0.00300145 0.00321895 0.00344933 0.00404297 0.00375621 0.00372898 0.00925169 0.00831725 0.0097344
          0.0075072 0.008706 0.0102072 0.00680203 0.0078228 0.00618557 0.00706016 0.00812912 0.00943198 0.00908496 0.0110185 0.0106413
          0.00564444 0.00639818 0.00516749 0.00582068 0.00660295 0.00474547 0.00531446 0.00437063 0.0048687 0.00545505 0.00614318 0.00598983
          0.00694942 0.00678901 0.00789212 0.0077333 0.00899092 0.00884694 0.00865087 0.0102654 0.0101561 0.0117324 0.0116874 0.0115501
          0.0113248 0.0099768 0.00973279 0.00730971 0.007537 0.00840885 0.00403648 0.00447447 0.00373754 0.00412437 0.00457318 0.0034692
          0.00381225 0.00322753 0.00353295 0.00388287 0.00428262 0.00420769 0.00473835 0.00466212 0.00300916 0.00328212 0.00281118 0.00305604
          0.00333344 0.00263102 0.00285151 0.00310002 0.00337938 0.00369291 0.00404401 0.00400047 0.00443597 0.00487174 0.00484451 0.00479968
          0.0043983 0.00434675 0.00359304 0.00364691 0.00394627 0.00535357 0.00588252 0.00589625 0.0064577 0.00707527 0.00717149 0.00723055
          0.00650615 0.00725086 0.00652279 0.00772717 0.00839958 0.00864303 0.0090717 0.00971649 0.0101899 0.0106258 0.00942002 0.0110052
          0.00972264 0.0113144 0.00996886 0.011543 0.0101507 0.00898671 0.0116838 0.0102626 0.0103012 0.00910732 0.00810284 0.00907641
          0.00807788 0.00788734 0.0088408 0.00800537 0.0049862 0.00509228 0.00518332 0.00569152 0.00627517 0.00558223 0.00525663 0.00531027
          0.00584415 0.00534285 0.00588335 0.00650719 0.00723186 0.00807955 0.00717407 0.00907855 0.00800865 0.00707904 0.00577964 0.00645974
          0.0063817 0.0103122 0.0115643 0.0109152 0.0130245 0.012326 0.0147323 0.013996 0.0130832 0.0120614 0.0115111 0.0167339
          0.0159841 0.0190813 0.0183647 0.0172455 0.0218296 0.0212308 0.0250298 0.0246987 0.0234307 0.0215698 0.0200204 0.0194553
          0.0184222 0.0173118 0.0166637 0.0152713 0.0148998 0.0143984 0.0134022 0.0132235 0.0129335 0.0125416 0.014968 0.0158718
          0.0137849 0.0287104 0.0289114 0.0328362 0.0340382 0.0329503 0.0372121 0.0402586 0.04126 0.0476922 0.0480882 0.0448554
          0.0396246 0.0400706 0.0367449 0.0435235 0.0561417 0.0407729 0.0642104 0.0718049 0.0276451 0.066634 0.00158851 0.0499565
          0.0923481 0.103807 0.0856065 0.0971331 0.0857219 0.0841713 0.0774491 0.0702651 0.0666268 0.0616174 0.0574596 0.0558041
          0.0464384 0.0460116 0.0447818 0.0427815 0.0530991 0.049411 0.0587736 0.0688981 0.0553583 0.0373129 0.0376007 0.0299447
          0.0306048 0.03082 0.024094 0.0249084 0.0194977 0.0203348 0.0209524 0.0213289 0.0254048 0.0214519 0.0255667 0.0159084
          0.0166949 0.0131132 0.0138121 0.0144216 0.0109386 0.0115337 0.0120819 0.0125591 0.0129471 0.0132329 0.0152839 0.013407
          0.0134641 0.0155798 0.0181919 0.0155068 0.0180976 0.0173363 0.0149181 0.0178092 0.0276595 0.0304418 0.0328876 0.0273105
          0.0229321 0.0254948 0.0348886 0.0363701 0.0299021 0.0372834 0.0305832 0.025389 0.0213173 0.018089 0.0209296 0.0155005
          0.0177924 0.0203016 0.0287985 0.0248773 0.0240487 -0.00158851 0.0258641 -0.0021277 0.0409372 0.0476262 -0.00169993 0.0442614
          0.0669522 0.0419336 0.0652541 0.0924052 0.0845529 0.0685731 -0.000855892 -0.00123222 0.0377129 0.0570506 0.0331908 0.0483438
          0.0725813 0.02896 0.0407056 0.0252067 0.034344 0.0485119 0.069382 0.0593684 0.0975425 0.0863063 0.128869 0.118423
          0.146409 0.139143 0.128205 0.111968 0.109052 -1.45204e-11 -0.000163613 -0.000346153 -0.00056874 0.103918 0.0960177 0.0863924
          0.104316 0.11286 0.0219565 0.0291229 0.0191734 0.0248471 0.0331573 0.0168015 0.0213364 0.0147825 0.0184409 0.0235346
          0.0305737 0.0278053 0.0402247 0.0369301 0.0130622 0.0160399 0.0115929 0.0140372 0.0173 0.0103341 0.0123569 0.0150082
          0.0184719 0.0229901 0.0288609 0.0273906 0.0364285 0.0460516 0.0448613 0.0428995 0.0349745 0.0329986 0.0200952 0.021638
          0.0255892 0.0580324 0.0724758 0.0732366 0.0889817 0.105871 0.111994 0.115618 0.0918729 0.116838 0.0928593 0.118119
          0.112972 0.12838 0.070571 0.0021277 0.00169993 0.00123222 0.086097 0.000855892 0.0971457 0.00056874 0.104696 0.000346153
          0.109538 0.146536 0.000163613 0.112202 0.112982 0.151929 0.141476 0.150627 0.140097 0.128699 0.139313 0.135913
          0.0399208 0.0451157 0.0496234 0.0619037 0.0778147 0.0557198 0.053259 0.0559103 0.0704016 0.0575125 0.0725429 0.0919508
          0.115693 0.140133 0.112155 0.150559 0.136 0.10614 0.0668366 0.0891436 0.0844283 -0.0258641 -0.0409372 -0.0476262
          -0.0442614 -0.0669522 -0.0419336 -0.0652541 -0.0924052 -0.0845529 -0.0685731 -0.0377129 -0.0570506 -0.0331908 -0.0483438 -0.0725813
          -0.02896 -0.0407056 -0.0252067 -0.034344 -0.0485119 -0.069382 -0.0593684 -0.0975425 -0.0863063 -0.128869 -0.118423 -0.146409
          -0.139143 -0.128205 -0.111968 -0.109052 -0.103918 -0.0960177 -0.0863924 -0.104316 -0.11286 -0.0219565 -0.0291229 -0.0191734
          -0.0248471 -0.0331573 -0.0168015 -0.0213364 -0.0147825 -0.0184409 -0.0235346 -0.0305737 -0.0278053 -0.0402247 -0.0369301 -0.0130622
          -0.0160399 -0.0115929 -0.0140372 -0.0173 -0.0103341 -0.0123569 -0.00925169 -0.0109386 -0.0131132 -0.0159084 -0.0150082 -0.0194977
          -0.0184719 -0.024094 -0.0229901 -0.0299447 -0.0288609 -0.0273906 -0.0373129 -0.0364285 -0.0464384 -0.0460516 -0.0448613 -0.0428995
          -0.0349745 -0.0329986 -0.0200952 -0.021638 -0.0255892 -0.0574596 -0.0580324 -0.0702651 -0.0724758 -0.0732366 -0.0841713 -0.0889817
          -0.0971331 -0.105871 -0.111994 -0.115618 -0.0918729 -0.116838 -0.0928593 -0.103807 -0.118119 -0.0923481 -0.112972 -0.12838
          -0.0499565 -0.070571 -0.086097 -0.0971457 -0.104696 -0.109538 -0.146536 -0.112202 -0.112982 -0.151929 -0.141476 -0.150627
          -0.140097 -0.128699 -0.139313 -0.135913 -0.0399208 -0.0451157 -0.0496234 -0.0619037 -0.0778147 -0.0557198 -0.053259 -0.0559103
          -0.0704016 -0.0575125 -0.0725429 -0.0919508 -0.115693 -0.140133 -0.112155 -0.150559 -0.136 -0.10614 -0.0668366 -0.0891436
          -0.0844283 -0.0092348 -0.0103122 -0.00971649 -0.0115643 -0.0109152 -0.0101899 -0.0130245 -0.012326 -0.0147323 -0.013996 -0.0130832
          -0.0120614 -0.0115111 -0.0110052 -0.0106258 -0.0167339 -0.0159841 -0.0190813 -0.0183647 -0.0172455 -0.0218296 -0.0212308 -0.0250298
          -0.0246987 -0.0234307 -0.0215698 -0.0200204 -0.0194553 -0.0184222 -0.0173118 -0.0166637 -0.0152713 -0.0148998 -0.0143984 -0.0134022
          -0.0132235 -0.0117324 -0.0116838 -0.011543 -0.0113144 -0.0129335 -0.0125416 -0.014968 -0.0158718 -0.0137849 -0.0287104 -0.0289114
          -0.0328362 -0.0340382 -0.0329503 -0.0372121 -0.0402586 -0.04126 -0.0476922 -0.0480882 -0.0448554 -0.0396246 -0.0400706 -0.0367449
          -0.0435235 -0.0561417 -0.0407729 -0.0642104 -0.0718049 -0.0276451 -0.066634 -0.0856065 -0.0857219 -0.0774491 -0.0666268 -0.0616174
          -0.0558041 -0.0460116 -0.0447818 -0.0427815 -0.0530991 -0.049411 -0.0587736 -0.0688981 -0.0553583 -0.0376007 -0.0306048 -0.03082
          -0.0249084 -0.0203348 -0.0209524 -0.0213289 -0.0254048 -0.0214519 -0.0255667 -0.0166949 -0.0138121 -0.0144216 -0.0115337 -0.0097344
          -0.0102072 -0.0106413 -0.0120819 -0.0110185 -0.0125591 -0.0113248 -0.0129471 -0.0115501 -0.0132329 -0.0152839 -0.0116874 -0.013407
          -0.0134641 -0.0155798 -0.0181919 -0.0155068 -0.0180976 -0.0173363 -0.0149181 -0.0178092 -0.0276595 -0.0304418 -0.0328876 -0.0273105
          -0.0229321 -0.0254948 -0.0348886 -0.0363701 -0.0299021 -0.0372834 -0.0305832 -0.025389 -0.0213173 -0.018089 -0.0209296 -0.0155005
          -0.0177924 -0.0203016 -0.0287985 -0.0248773 -0.0240487 -0.00831725 -0.0075072 -0.008706 -0.00680203 -0.0078228 -0.00618557 -0.00706016
          -0.00812912 -0.00943198 -0.00908496 -0.00564444 -0.00639818 -0.00516749 -0.00582068 -0.00660295 -0.00474547 -0.00531446 -0.00437063 -0.0048687
          -0.00545505 -0.00614318 -0.00598983 -0.00694942 -0.00678901 -0.00789212 -0.0077333 -0.00899092 -0.00884694 -0.00865087 -0.0102654 -0.0101561
          -0.0099768 -0.00973279 -0.00730971 -0.007537 -0.00840885 -0.00403648 -0.00447447 -0.00373754 -0.00412437 -0.00457318 -0.0034692 -0.00381225
          -0.00322753 -0.00353295 -0.00388287 -0.00428262 -0.00420769 -0.00473835 -0.00466212 -0.00300916 -0.00328212 -0.00281118 -0.00305604 -0.00333344
          -0.00263102 -0.00285151 -0.00246636 -0.00266562 -0.00288926 -0.00313933 -0.00310002 -0.00341858 -0.00337938 -0.00372984 -0.00369291 -0.0040758
          -0.00404401 -0.00400047 -0.00445884 -0.00443597 -0.00488071 -0.00487174 -0.00484451 -0.00479968 -0.0043983 -0.00434675 -0.00359304 -0.00364691
          -0.00394627 -0.00534218 -0.00535357 -0.00584252 -0.00588252 -0.00589625 -0.00637871 -0.0064577 -0.00694459 -0.00707527 -0.00717149 -0.00723055
          -0.00650615 -0.00725086 -0.00652279 -0.00752975 -0.00772717 -0.00811882 -0.00839958 -0.00864303 -0.00869216 -0.0090717 -0.00942002 -0.00972264
          -0.00996886 -0.0101507 -0.00898671 -0.0102626 -0.0103012 -0.00910732 -0.00810284 -0.00907641 -0.00807788 -0.00788734 -0.0088408 -0.00800537
          -0.0049862 -0.00509228 -0.00518332 -0.00569152 -0.00627517 -0.00558223 -0.00525663 -0.00531027 -0.00584415 -0.00534285 -0.00588335 -0.00650719
          -0.00723186 -0.00807955 -0.00717407 -0.00907855 -0.00800865 -0.00707904 -0.00577964 -0.00645974 -0.0063817 -0.00246576 -0.00263028 -0.00249443
          -0.00281027 -0.00266491 -0.00252077 -0.00300805 -0.00285063 -0.00322619 -0.00305495 -0.00288845 -0.00272603 -0.00269724 -0.00256377 -0.00254405
          -0.00346759 -0.00328079 -0.00373559 -0.00353134 -0.00333221 -0.00403413 -0.0038103 -0.00436778 -0.004122 -0.00388105 -0.00364559 -0.00359155
          -0.00341768 -0.0033783 -0.00319916 -0.00317212 -0.00299112 -0.00297421 -0.00295107 -0.00279327 -0.00278452 -0.00260036 -0.00259798 -0.00259099
          -0.00257952 -0.00277017 -0.00275054 -0.00309902 -0.00313845 -0.00292225 -0.004742 -0.00447158 -0.00516323 -0.00486517 -0.00457048 -0.00563917
          -0.00531011 -0.00617902 -0.00581528 -0.00545096 -0.00508934 -0.00498289 -0.00473633 -0.00465973 -0.00679382 -0.00639143 -0.00749685 -0.00705166
          -0.00659656 -0.00830408 -0.007812 -0.00730163 -0.00678329 -0.00627133 -0.00577725 -0.00568845 -0.00530895 -0.0048712 -0.00484344 -0.00479811
          -0.00525471 -0.00518084 -0.00598474 -0.00613863 -0.00557858 -0.00446637 -0.0040951 -0.00410146 -0.00375679 -0.00345003 -0.00347298 -0.0034869
          -0.00377315 -0.0034915 -0.00377854 -0.00317285 -0.00292295 -0.00295165 -0.00269787 -0.00249498 -0.00252127 -0.00254448 -0.00272658 -0.00256412
          -0.00275099 -0.00257979 -0.00277052 -0.00259118 -0.00278475 -0.00299142 -0.00259808 -0.00279339 -0.00279624 -0.00300497 -0.00323516 -0.0030016
          -0.00323123 -0.00319973 -0.00297465 -0.00321933 -0.00420548 -0.00428066 -0.0043451 -0.00399913 -0.00369181 -0.00394466 -0.00439703 -0.0044351
          -0.00407509 -0.0044584 -0.00409474 -0.00377286 -0.00348666 -0.00323104 -0.0034725 -0.00300145 -0.00321895 -0.00344933 -0.00404297 -0.00375621
          -0.00372898
        </DataArray>
      </PointData>
      <Points>
        <DataArray type="Float32" Name="Coordinates" NumberOfComponents="3" format="ascii">
          0 0 0 0.0981748 0 0 0 0.0625 0 0.19635 0 0
          0.0981748 0.0625 0 0 0.125 0 0.294524 0 0 0.19635 0.0625 0
          0.392699 0 0 0.294524 0.0625 0 0.19635 0.125 0 0.0981748 0.1875 0
          0.0981748 0.125 0 0 0.25 0 0 0.1875 0 0.490874 0 0
          0.392699 0.0625 0 0.589049 0 0 0.490874 0.0625 0 0.392699 0.125 0
          0.687223 0 0 0.589049 0.0625 0 0.785398 0 0 0.687223 0.0625 0
          0.589049 0.125 0 0.490874 0.1875 0 0.490874 0.125 0 0.392699 0.25 0
          0.392699 0.1875 0 0.294524 0.3125 0 0.294524 0.25 0 0.19635 0.375 0
          0.19635 0.3125 0 0.19635 0.25 0 0.0981748 0.4375 0 0.0981748 0.375 0
          0 0.5 0 0 0.4375 0 0 0.375 0 0 0.3125 0
          0.0981748 0.3125 0 0.0981748 0.25 0 0.294524 0.125 0 0.294524 0.1875 0
          0.19635 0.1875 0 0.883573 0 0 0.785398 0.0625 0 0.981748 0 0
          0.883573 0.0625 0 0.785398 0.125 0 1.07992 0 0 0.981748 0.0625 0
          1.1781 0 0 1.07992 0.0625 0 0.981748 0.125 0 0.883573 0.1875 0
          0.883573 0.125 0 0.785398 0.25 0 0.785398 0.1875 0 1.27627 0 0
          1.1781 0.0625 0 1.37445 0 0 1.27627 0.0625 0 1.1781 0.125 0
          1.47262 0 0 1.37445 0.0625 0 1.5708 0 0 1.47262 0.0625 0
          1.37445 0.125 0 1.27627 0.1875 0 1.27627 0.125 0 1.1781 0.25 0
          1.1781 0.1875 0 1.07992 0.3125 0 1.07992 0.25 0 0.981748 0.375 0
          0.981748 0.3125 0 0.981748 0.25 0 0.883573 0.4375 0 0.883573 0.375 0
          0.785398 0.5 0 0.785398 0.4375 0 0.785398 0.375 0 0.785398 0.3125 0
          0.883573 0.3125 0 0.883573 0.25 0 1.07992 0.125 0 1.07992 0.1875 0
          0.981748 0.1875 0 0.687223 0.5625 0 0.687223 0.5 0 0.589049 0.625 0
          0.589049 0.5625 0 0.589049 0.5 0 0.490874 0.6875 0 0.490874 0.625 0
          0.392699 0.75 0 0.392699 0.6875 0 0.392699 0.625 0 0.392699 0.5625 0
          0.490874 0.5625 0 0.392699 0.5 0 0.490874 0.5 0 0.294524 0.8125 0
          0.294524 0.75 0 0.19635 0.875 0 0.19635 0.8125 0 0.19635 0.75 0
          0.0981748 0.9375 0 0.0981748 0.875 0 0 1 0 0 0.9375 0
          0 0.875 0 0 0.8125 0 0.0981748 0.8125 0 0 0.75 0
          0.0981748 0.75 0 0 0.6875 0 0.0981748 0.6875 0 0 0.625 0
          0.0981748 0.625 0 0.19635 0.625 0 0 0.5625 0 0.0981748 0.5625 0
          0.0981748 0.5 0 0.19635 0.5 0 0.294524 0.5 0 0.19635 0.5625 0
          0.294524 0.5625 0 0.294524 0.6875 0 0.19635 0.6875 0 0.294524 0.625 0
          0.687223 0.125 0 0.687223 0.1875 0 0.687223 0.25 0 0.589049 0.25 0
          0.490874 0.25 0 0.589049 0.1875 0 0.687223 0.3125 0 0.687223 0.375 0
          0.589049 0.375 0 0.687223 0.4375 0 0.589049 0.4375 0 0.490874 0.4375 0
          0.392699 0.4375 0 0.294524 0.4375 0 0.392699 0.375 0 0.19635 0.4375 0
          0.294524 0.375 0 0.392699 0.3125 0 0.589049 0.3125 0 0.490874 0.375 0
          0.490874 0.3125 0 1.5708 1 0 1.47262 1 0 1.5708 0.9375 0
          1.37445 1 0 1.47262 0.9375 0 1.5708 0.875 0 1.27627 1 0
          1.37445 0.9375 0 1.1781 1 0 1.27627 0.9375 0 1.37445 0.875 0
          1.47262 0.8125 0 1.47262 0.875 0 1.5708 0.75 0 1.5708 0.8125 0
          1.07992 1 0 1.1781 0.9375 0 0.981748 1 0 1.07992 0.9375 0
          1.1781 0.875 0 0.883573 1 0 0.981748 0.9375 0 0.785398 1 0
          0.883573 0.9375 0 0.981748 0.875 0 1.07992 0.8125 0 1.07992 0.875 0
          1.1781 0.75 0 1.1781 0.8125 0 1.27627 0.6875 0 1.27627 0.75 0
          1.37445 0.625 0 1.37445 0.6875 0 1.37445 0.75 0 1.47262 0.5625 0
          1.47262 0.625 0 1.5708 0.5 0 1.5708 0.5625 0 1.5708 0.625 0
          1.5708 0.6875 0 1.47262 0.6875 0 1.47262 0.75 0 1.27627 0.875 0
          1.27627 0.8125 0 1.37445 0.8125 0 0.687223 1 0 0.785398 0.9375 0
          0.589049 1 0 0.687223 0.9375 0 0.785398 0.875 0 0.490874 1 0
          0.589049 0.9375 0 0.392699 1 0 0.490874 0.9375 0 0.589049 0.875 0
          0.687223 0.8125 0 0.687223 0.875 0 0.785398 0.75 0 0.785398 0.8125 0
          0.294524 1 0 0.392699 0.9375 0 0.19635 1 0 0.294524 0.9375 0
          0.392699 0.875 0 0.0981748 1 0 0.19635 0.9375 0 0.294524 0.875 0
          0.392699 0.8125 0 0.490874 0.75 0 0.589049 0.6875 0 0.589049 0.75 0
          0.687223 0.625 0 0.785398 0.5625 0 0.785398 0.625 0 0.785398 0.6875 0
          0.687223 0.6875 0 0.687223 0.75 0 0.490874 0.875 0 0.490874 0.8125 0
          0.589049 0.8125 0 0.883573 0.5 0 0.981748 0.4375 0 0.981748 0.5 0
          1.07992 0.375 0 1.1781 0.3125 0 1.1781 0.375 0 1.1781 0.4375 0
          1.07992 0.4375 0 1.1781 0.5 0 1.07992 0.5 0 1.27627 0.25 0
          1.37445 0.1875 0 1.37445 0.25 0 1.47262 0.125 0 1.5708 0.0625 0
          1.5708 0.125 0 1.5708 0.1875 0 1.47262 0.1875 0 1.5708 0.25 0
          1.47262 0.25 0 1.5708 0.3125 0 1.47262 0.3125 0 1.5708 0.375 0
          1.47262 0.375 0 1.37445 0.375 0 1.5708 0.4375 0 1.47262 0.4375 0
          1.47262 0.5 0 1.37445 0.5 0 1.27627 0.5 0 1.37445 0.4375 0
          1.27627 0.4375 0 1.27627 0.3125 0 1.37445 0.3125 0 1.27627 0.375 0
          0.883573 0.875 0 0.883573 0.8125 0 0.883573 0.75 0 0.981748 0.75 0
          1.07992 0.75 0 0.981748 0.8125 0 0.883573 0.6875 0 0.883573 0.625 0
          0.981748 0.625 0 0.883573 0.5625 0 0.981748 0.5625 0 1.07992 0.5625 0
          1.1781 0.5625 0 1.27627 0.5625 0 1.1781 0.625 0 1.37445 0.5625 0
          1.27627 0.625 0 1.1781 0.6875 0 0.981748 0.6875 0 1.07992 0.625 0
          1.07992 0.6875 0 1.66897 0 0 1.76715 0 0 1.66897 0.0625 0
          1.86532 0 0 1.76715 0.0625 0 1.9635 0 0 1.86532 0.0625 0
          1.76715 0.125 0 1.66897 0.1875 0 1.66897 0.125 0 2.06167 0 0
          1.9635 0.0625 0 2.15984 0 0 2.06167 0.0625 0 1.9635 0.125 0
          2.25802 0 0 2.15984 0.0625 0 2.35619 0 0 2.25802 0.0625 0
          2.15984 0.125 0 2.06167 0.1875 0 2.06167 0.125 0 1.9635 0.25 0
          1.9635 0.1875 0 1.86532 0.3125 0 1.86532 0.25 0 1.76715 0.375 0
          1.76715 0.3125 0 1.76715 0.25 0 1.66897 0.4375 0 1.66897 0.375 0
          1.66897 0.3125 0 1.66897 0.25 0 1.86532 0.125 0 1.86532 0.1875 0
          1.76715 0.1875 0 2.45437 0 0 2.35619 0.0625 0 2.55254 0 0
          2.45437 0.0625 0 2.35619 0.125 0 2.65072 0 0 2.55254 0.0625 0
          2.74889 0 0 2.65072 0.0625 0 2.55254 0.125 0 2.45437 0.1875 0
          2.45437 0.125 0 2.35619 0.25 0 2.35619 0.1875 0 2.84707 0 0
          2.74889 0.0625 0 2.94524 0 0 2.84707 0.0625 0 2.74889 0.125 0
          3.04342 0 0 2.94524 0.0625 0 3.14159 0 0 3.04342 0.0625 0
          2.94524 0.125 0 2.84707 0.1875 0 2.84707 0.125 0 2.74889 0.25 0
          2.74889 0.1875 0 2.65072 0.3125 0 2.65072 0.25 0 2.55254 0.375 0
          2.55254 0.3125 0 2.55254 0.25 0 2.45437 0.4375 0 2.45437 0.375 0
          2.35619 0.5 0 2.35619 0.4375 0 2.35619 0.375 0 2.35619 0.3125 0
          2.45437 0.3125 0 2.45437 0.25 0 2.65072 0.125 0 2.65072 0.1875 0
          2.55254 0.1875 0 2.25802 0.5625 0 2.25802 0.5 0 2.15984 0.625 0
          2.15984 0.5625 0 2.15984 0.5 0 2.06167 0.6875 0 2.06167 0.625 0
          1.9635 0.75 0 1.9635 0.6875 0 1.9635 0.625 0 1.9635 0.5625 0
          2.06167 0.5625 0 1.9635 0.5 0 2.06167 0.5 0 1.86532 0.8125 0
          1.86532 0.75 0 1.76715 0.875 0 1.76715 0.8125 0 1.76715 0.75 0
          1.66897 0.9375 0 1.66897 0.875 0 1.66897 0.8125 0 1.66897 0.75 0
          1.66897 0.6875 0 1.66897 0.625 0 1.76715 0.625 0 1.66897 0.5625 0
          1.66897 0.5 0 1.76715 0.5 0 1.86532 0.5 0 1.76715 0.5625 0
          1.86532 0.5625 0 1.86532 0.6875 0 1.76715 0.6875 0 1.86532 0.625 0
          2.25802 0.125 0 2.25802 0.1875 0 2.25802 0.25 0 2.15984 0.25 0
          2.06167 0.25 0 2.15984 0.1875 0 2.25802 0.3125 0 2.25802 0.375 0
          2.15984 0.375 0 2.25802 0.4375 0 2.15984 0.4375 0 2.06167 0.4375 0
          1.9635 0.4375 0 1.86532 0.4375 0 1.9635 0.375 0 1.76715 0.4375 0
          1.86532 0.375 0 1.9635 0.3125 0 2.15984 0.3125 0 2.06167 0.375 0
          2.06167 0.3125 0 3.14159 1 0 3.04342 1 0 3.14159 0.9375 0
          2.94524 1 0 3.04342 0.9375 0 3.14159 0.875 0 2.84707 1 0
          2.94524 0.9375 0 2.74889 1 0 2.84707 0.9375 0 2.94524 0.875 0
          3.04342 0.8125 0 3.04342 0.875 0 3.14159 0.75 0 3.14159 0.8125 0
          2.65072 1 0 2.74889 0.9375 0 2.55254 1 0 2.65072 0.9375 0
          2.74889 0.875 0 2.45437 1 0 2.55254 0.9375 0 2.35619 1 0
          2.45437 0.9375 0 2.55254 0.875 0 2.65072 0.8125 0 2.65072 0.875 0
          2.74889 0.75 0 2.74889 0.8125 0 2.84707 0.6875 0 2.84707 0.75 0
          2.94524 0.625 0 2.94524 0.6875 0 2.94524 0.75 0 3.04342 0.5625 0
          3.04342 0.625 0 3.14159 0.5 0 3.14159 0.5625 0 3.14159 0.625 0
          3.14159 0.6875 0 3.04342 0.6875 0 3.04342 0.75 0 2.84707 0.875 0
          2.84707 0.8125 0 2.94524 0.8125 0 2.25802 1 0 2.35619 0.9375 0
          2.15984 1 0 2.25802 0.9375 0 2.35619 0.875 0 2.06167 1 0
          2.15984 0.9375 0 1.9635 1 0 2.06167 0.9375 0 2.15984 0.875 0
          2.25802 0.8125 0 2.25802 0.875 0 2.35619 0.75 0 2.35619 0.8125 0
          1.86532 1 0 1.9635 0.9375 0 1.76715 1 0 1.86532 0.9375 0
          1.9635 0.875 0 1.66897 1 0 1.76715 0.9375 0 1.86532 0.875 0
          1.9635 0.8125 0 2.06167 0.75 0 2.15984 0.6875 0 2.15984 0.75 0
          2.25802 0.625 0 2.35619 0.5625 0 2.35619 0.625 0 2.35619 0.6875 0
          2.25802 0.6875 0 2.25802 0.75 0 2.06167 0.875 0 2.06167 0.8125 0
          2.15984 0.8125 0 2.45437 0.5 0 2.55254 0.4375 0 2.55254 0.5 0
          2.65072 0.375 0 2.74889 0.3125 0 2.74889 0.375 0 2.74889 0.4375 0
          2.65072 0.4375 0 2.74889 0.5 0 2.65072 0.5 0 2.84707 0.25 0
          2.94524 0.1875 0 2.94524 0.25 0 3.04342 0.125 0 3.14159 0.0625 0
          3.14159 0.125 0 3.14159 0.1875 0 3.04342 0.1875 0 3.14159 0.25 0
          3.04342 0.25 0 3.14159 0.3125 0 3.04342 0.3125 0 3.14159 0.375 0
          3.04342 0.375 0 2.94524 0.375 0 3.14159 0.4375 0 3.04342 0.4375 0
          3.04342 0.5 0 2.94524 0.5 0 2.84707 0.5 0 2.94524 0.4375 0
          2.84707 0.4375 0 2.84707 0.3125 0 2.94524 0.3125 0 2.84707 0.375 0
          2.45437 0.875 0 2.45437 0.8125 0 2.45437 0.75 0 2.55254 0.75 0
          2.65072 0.75 0 2.55254 0.8125 0 2.45437 0.6875 0 2.45437 0.625 0
          2.55254 0.625 0 2.45437 0.5625 0 2.55254 0.5625 0 2.65072 0.5625 0
          2.74889 0.5625 0 2.84707 0.5625 0 2.74889 0.625 0 2.94524 0.5625 0
          2.84707 0.625 0 2.74889 0.6875 0 2.55254 0.6875 0 2.65072 0.625 0
          2.65072 0.6875 0 3.23977 0 0 3.33794 0 0 3.23977 0.0625 0
          3.43612 0 0 3.33794 0.0625 0 3.53429 0 0 3.43612 0.0625 0
          3.33794 0.125 0 3.23977 0.1875 0 3.23977 0.125 0 3.63247 0 0
          3.53429 0.0625 0 3.73064 0 0 3.63247 0.0625 0 3.53429 0.125 0
          3.82882 0 0 3.73064 0.0625 0 3.92699 0 0 3.82882 0.0625 0
          3.73064 0.125 0 3.63247 0.1875 0 3.63247 0.125 0 3.53429 0.25 0
          3.53429 0.1875 0 3.43612 0.3125 0 3.43612 0.25 0 3.33794 0.375 0
          3.33794 0.3125 0 3.33794 0.25 0 3.23977 0.4375 0 3.23977 0.375 0
          3.23977 0.3125 0 3.23977 0.25 0 3.43612 0.125 0 3.43612 0.1875 0
          3.33794 0.1875 0 4.02517 0 0 3.92699 0.0625 0 4.12334 0 0
          4.02517 0.0625 0 3.92699 0.125 0 4.22152 0 0 4.12334 0.0625 0
          4.31969 0 0 4.22152 0.0625 0 4.12334 0.125 0 4.02517 0.1875 0
          4.02517 0.125 0 3.92699 0.25 0 3.92699 0.1875 0 4.41786 0 0
          4.31969 0.0625 0 4.51604 0 0 4.41786 0.0625 0 4.31969 0.125 0
          4.61421 0 0 4.51604 0.0625 0 4.71239 0 0 4.61421 0.0625 0
          4.51604 0.125 0 4.41786 0.1875 0 4.41786 0.125 0 4.31969 0.25 0
          4.31969 0.1875 0 4.22152 0.3125 0 4.22152 0.25 0 4.12334 0.375 0
          4.12334 0.3125 0 4.12334 0.25 0 4.02517 0.4375 0 4.02517 0.375 0
          3.92699 0.5 0 3.92699 0.4375 0 3.92699 0.375 0 3.92699 0.3125 0
          4.02517 0.3125 0 4.02517 0.25 0 4.22152 0.125 0 4.22152 0.1875 0
          4.12334 0.1875 0 3.82882 0.5625 0 3.82882 0.5 0 3.73064 0.625 0
          3.73064 0.5625 0 3.73064 0.5 0 3.63247 0.6875 0 3.63247 0.625 0
          3.53429 0.75 0 3.53429 0.6875 0 3.53429 0.625 0 3.53429 0.5625 0
          3.63247 0.5625 0 3.53429 0.5 0 3.63247 0.5 0 3.43612 0.8125 0
          3.43612 0.75 0 3.33794 0.875 0 3.33794 0.8125 0 3.33794 0.75 0
          3.23977 0.9375 0 3.23977 0.875 0 3.23977 0.8125 0 3.23977 0.75 0
          3.23977 0.6875 0 3.23977 0.625 0 3.33794 0.625 0 3.23977 0.5625 0
          3.23977 0.5 0 3.33794 0.5 0 3.43612 0.5 0 3.33794 0.5625 0
          3.43612 0.5625 0 3.43612 0.6875 0 3.33794 0.6875 0 3.43612 0.625 0
          3.82882 0.125 0 3.82882 0.1875 0 3.82882 0.25 0 3.73064 0.25 0
          3.63247 0.25 0 3.73064 0.1875 0 3.82882 0.3125 0 3.82882 0.375 0
          3.73064 0.375 0 3.82882 0.4375 0 3.73064 0.4375 0 3.63247 0.4375 0
          3.53429 0.4375 0 3.43612 0.4375 0 3.53429 0.375 0 3.33794 0.4375 0
          3.43612 0.375 0 3.53429 0.3125 0 3.73064 0.3125 0 3.63247 0.375 0
          3.63247 0.3125 0 4.71239 1 0 4.61421 1 0 4.71239 0.9375 0
          4.51604 1 0 4.61421 0.9375 0 4.71239 0.875 0 4.41786 1 0
          4.51604 0.9375 0 4.31969 1 0 4.41786 0.9375 0 4.51604 0.875 0
          4.61421 0.8125 0 4.61421 0.875 0 4.71239 0.75 0 4.71239 0.8125 0
          4.22152 1 0 4.31969 0.9375 0 4.12334 1 0 4.22152 0.9375 0
          4.31969 0.875 0 4.02517 1 0 4.12334 0.9375 0 3.92699 1 0
          4.02517 0.9375 0 4.12334 0.875 0 4.22152 0.8125 0 4.22152 0.875 0
          4.31969 0.75 0 4.31969 0.8125 0 4.41786 0.6875 0 4.41786 0.75 0
          4.51604 0.625 0 4.51604 0.6875 0 4.51604 0.75 0 4.61421 0.5625 0
          4.61421 0.625 0 4.71239 0.5 0 4.71239 0.5625 0 4.71239 0.625 0
          4.71239 0.6875 0 4.61421 0.6875 0 4.61421 0.75 0 4.41786 0.875 0
          4.41786 0.8125 0 4.51604 0.8125 0 3.82882 1 0 3.92699 0.9375 0
          3.73064 1 0 3.82882 0.9375 0 3.92699 0.875 0 3.63247 1 0
          3.73064 0.9375 0 3.53429 1 0 3.63247 0.9375 0 3.73064 0.875 0
          3.82882 0.8125 0 3.82882 0.875 0 3.92699 0.75 0 3.92699 0.8125 0
          3.43612 1 0 3.53429 0.9375 0 3.33794 1 0 3.43612 0.9375 0
          3.53429 0.875 0 3.23977 1 0 3.33794 0.9375 0 3.43612 0.875 0
          3.53429 0.8125 0 3.63247 0.75 0 3.73064 0.6875 0 3.73064 0.75 0
          3.82882 0.625 0 3.92699 0.5625 0 3.92699 0.625 0 3.92699 0.6875 0
          3.82882 0.6875 0 3.82882 0.75 0 3.63247 0.875 0 3.63247 0.8125 0
          3.73064 0.8125 0 4.02517 0.5 0 4.12334 0.4375 0 4.12334 0.5 0
          4.22152 0.375 0 4.31969 0.3125 0 4.31969 0.375 0 4.31969 0.4375 0
          4.22152 0.4375 0 4.31969 0.5 0 4.22152 0.5 0 4.41786 0.25 0
          4.51604 0.1875 0 4.51604 0.25 0 4.61421 0.125 0 4.71239 0.0625 0
          4.71239 0.125 0 4.71239 0.1875 0 4.61421 0.1875 0 4.71239 0.25 0
          4.61421 0.25 0 4.71239 0.3125 0 4.61421 0.3125 0 4.71239 0.375 0
          4.61421 0.375 0 4.51604 0.375 0 4.71239 0.4375 0 4.61421 0.4375 0
          4.61421 0.5 0 4.51604 0.5 0 4.41786 0.5 0 4.51604 0.4375 0
          4.41786 0.4375 0 4.41786 0.3125 0 4.51604 0.3125 0 4.41786 0.375 0
          4.02517 0.875 0 4.02517 0.8125 0 4.02517 0.75 0 4.12334 0.75 0
          4.22152 0.75 0 4.12334 0.8125 0 4.02517 0.6875 0 4.02517 0.625 0
          4.12334 0.625 0 4.02517 0.5625 0 4.12334 0.5625 0 4.22152 0.5625 0
          4.31969 0.5625 0 4.41786 0.5625 0 4.31969 0.625 0 4.51604 0.5625 0
          4.41786 0.625 0 4.31969 0.6875 0 4.12334 0.6875 0 4.22152 0.625 0
          4.22152 0.6875 0 4.81056 0 0 4.90874 0 0 4.81056 0.0625 0
          5.00691 0 0 4.90874 0.0625 0 5.10509 0 0 5.00691 0.0625 0
          4.90874 0.125 0 4.81056 0.1875 0 4.81056 0.125 0 5.20326 0 0
          5.10509 0.0625 0 5.30144 0 0 5.20326 0.0625 0 5.10509 0.125 0
          5.39961 0 0 5.30144 0.0625 0 5.49779 0 0 5.39961 0.0625 0
          5.30144 0.125 0 5.20326 0.1875 0 5.20326 0.125 0 5.10509 0.25 0
          5.10509 0.1875 0 5.00691 0.3125 0 5.00691 0.25 0 4.90874 0.375 0
          4.90874 0.3125 0 4.90874 0.25 0 4.81056 0.4375 0 4.81056 0.375 0
          4.81056 0.3125 0 4.81056 0.25 0 5.00691 0.125 0 5.00691 0.1875 0
          4.90874 0.1875 0 5.59596 0 0 5.49779 0.0625 0 5.69414 0 0
          5.59596 0.0625 0 5.49779 0.125 0 5.79231 0 0 5.69414 0.0625 0
          5.89049 0 0 5.79231 0.0625 0 5.69414 0.125 0 5.59596 0.1875 0
          5.59596 0.125 0 5.49779 0.25 0 5.49779 0.1875 0 5.98866 0 0
          5.89049 0.0625 0 6.08684 0 0 5.98866 0.0625 0 5.89049 0.125 0
          6.18501 0 0 6.08684 0.0625 0 6.28319 0 0 6.18501 0.0625 0
          6.08684 0.125 0 5.98866 0.1875 0 5.98866 0.125 0 5.89049 0.25 0
          5.89049 0.1875 0 5.79231 0.3125 0 5.79231 0.25 0 5.69414 0.375 0
          5.69414 0.3125 0 5.69414 0.25 0 5.59596 0.4375 0 5.59596 0.375 0
          5.49779 0.5 0 5.49779 0.4375 0 5.49779 0.375 0 5.49779 0.3125 0
          5.59596 0.3125 0 5.59596 0.25 0 5.79231 0.125 0 5.79231 0.1875 0